                               Psi4 1.3.1 release

  ==> Input File <==

--------------------------------------------------------------------------
memory 58 GB

molecule {
0 2
    C
    C 1 1.3
    H 2 1.1 1 120.0
    H 2 1.1 1 120.0 3 -120.0
    H 2 1.1 1 120.0 3 120.0
    H 1 1.1 2 120.0 3 90.0
    H 1 1.1 2 120.0 3 -90.0
}

set basis cc-pvtz
set reference uhf
set scf_type pk
set mp2_type conv
energy('mp2')
--------------------------------------------------------------------------

    Molecular point group: cs

    Geometry (in Angstrom), charge = 0, multiplicity = 2:

       Center              X                  Y                   Z               Mass
    ------------   -----------------  -----------------  -----------------  -----------------
         C            0.000000000000     0.691646917115     0.000000000000    12.000000000000
         C            0.000000000000    -0.608353082885     0.000000000000    12.000000000000
         H            0.952627944163    -1.158353082885     0.000000000000     1.007825032230
         H           -0.476313972081    -1.158353082885    -0.825000000000     1.007825032230
         H           -0.476313972081    -1.158353082885     0.825000000000     1.007825032230
         H            0.000000000000     1.241646917115    -0.952627944163     1.007825032230
         H            0.000000000000     1.241646917115     0.952627944163     1.007825032230

  Charge       = 0
  Multiplicity = 2
  Basis Set: CC-PVTZ
    Blend: CC-PVTZ

    Orbital Energies [Eh]
    ---------------------

    Alpha Occupied:

       1Ap   -11.217272     2Ap   -11.200393     3Ap    -1.080274
       4Ap    -0.834633     1App   -0.630489     5Ap    -0.600778
       6Ap    -0.583620     2App   -0.469289     7Ap    -0.330977

    Alpha Virtual:

       8Ap     0.145944     9Ap     0.179525     3App    0.189636
      10Ap     0.223428     4App    0.250649    11Ap     0.351989
      12Ap     0.369780     5App    0.402357    13Ap     0.429802
      14Ap     0.451903     6App    0.522456    15Ap     0.527636
       7App    0.582055    16Ap     0.621312    17Ap     0.631067
      18Ap     0.639239     8App    0.712136    19Ap     0.731507
       9App    0.738399    20Ap     0.792424    21Ap     0.850850
      10App    0.945272    22Ap     1.043967    11App    1.049917
      23Ap     1.131412    12App    1.135693    13App    1.186305
      24Ap     1.194113    25Ap     1.235137    26Ap     1.286472
      14App    1.289145    15App    1.368391    27Ap     1.374547
      28Ap     1.424594    16App    1.491854    29Ap     1.508624
      17App    1.546003    30Ap     1.546482    31Ap     1.558699
      32Ap     1.576752    18App    1.625893    33Ap     1.770476
      34Ap     1.835891    19App    1.907149    35Ap     2.400369
      36Ap     2.456301    37Ap     2.511575    20App    2.541604
      38Ap     2.675988    21App    2.705198    39Ap     2.746148
      22App    2.817164    40Ap     2.896130    41Ap     3.009025
      23App    3.011735    24App    3.035086    25App    3.101102
      42Ap     3.103810    43Ap     3.122228    26App    3.144914
      44Ap     3.196331    45Ap     3.232424    27App    3.255397
      46Ap     3.310741    47Ap     3.357369    28App    3.372321
      29App    3.385396    48Ap     3.397700    30App    3.479727
      49Ap     3.548763    50Ap     3.595140    31App    3.616875
      32App    3.722793    51Ap     3.773983    33App    3.777687
      34App    3.789028    52Ap     3.807971    53Ap     3.899344
      35App    3.932802    54Ap     3.938667    36App    3.987974
      55Ap     4.060250    37App    4.099901    56Ap     4.125107
      38App    4.164051    57Ap     4.244305    58Ap     4.258318
      39App    4.276365    59Ap     4.279536    60Ap     4.356287
      61Ap     4.446658    62Ap     4.516953    40App    4.537111
      41App    4.576075    42App    4.620074    63Ap     4.699236
      64Ap     4.796776    43App    4.901366    65Ap     4.906998
      66Ap     4.960487    44App    4.962733    45App    5.153610
      67Ap     5.153648    68Ap     5.213804    69Ap     5.236786
      46App    5.277412    47App    5.386792    70Ap     5.453835
      71Ap     5.501476    48App    5.679320    72Ap     5.689344
      49App    5.826399    73Ap     5.845041    74Ap     5.926340
      75Ap     6.129877    50App    6.180073    51App    6.272985
      76Ap     6.448214    52App    6.573552    77Ap    12.133464
      78Ap    15.577713

    Beta Occupied:

       1Ap   -11.205141     2Ap   -11.194619     3Ap    -1.042025
       4Ap    -0.785299     1App   -0.620032     5Ap    -0.584781
       6Ap    -0.531500     2App   -0.463630

    Beta Virtual:

       7Ap     0.130608     8Ap     0.148692     9Ap     0.188585
       3App    0.191993    10Ap     0.229051     4App    0.252410
      11Ap     0.354374    12Ap     0.372518     5App    0.406015
      13Ap     0.442207     6App    0.524420    14Ap     0.536932
      15Ap     0.574383     7App    0.588475    16Ap     0.634753
      17Ap     0.649735    18Ap     0.667005     8App    0.720123
      19Ap     0.746470     9App    0.776182    20Ap     0.806940
      21Ap     0.860791    10App    0.949785    11App    1.052340
      22Ap     1.061742    12App    1.140635    23Ap     1.148979
      13App    1.192431    24Ap     1.207284    25Ap     1.253043
      14App    1.293591    26Ap     1.307328    15App    1.374793
      27Ap     1.379166    28Ap     1.445391    16App    1.496000
      29Ap     1.515038    30Ap     1.553818    17App    1.557906
      31Ap     1.563064    32Ap     1.598800    18App    1.635660
      33Ap     1.779033    34Ap     1.849170    19App    1.909189
      35Ap     2.406750    36Ap     2.489121    20App    2.549996
      37Ap     2.570126    38Ap     2.683146    21App    2.720321
      39Ap     2.757983    22App    2.836288    40Ap     2.923262
      41Ap     3.018022    23App    3.031530    24App    3.047405
      25App    3.106964    42Ap     3.128169    43Ap     3.143470
      26App    3.151446    44Ap     3.209153    45Ap     3.244316
      27App    3.259889    46Ap     3.316632    47Ap     3.373409
      28App    3.376654    29App    3.394208    48Ap     3.425461
      30App    3.489696    49Ap     3.567970    50Ap     3.606845
      31App    3.619830    32App    3.727220    51Ap     3.778069
      33App    3.783411    34App    3.791459    52Ap     3.815945
      53Ap     3.907627    35App    3.940704    54Ap     3.947510
      36App    3.992715    55Ap     4.064653    37App    4.103622
      56Ap     4.127357    38App    4.165610    57Ap     4.247445
      58Ap     4.263853    39App    4.280974    59Ap     4.284706
      60Ap     4.364354    61Ap     4.453704    62Ap     4.520197
      40App    4.544236    41App    4.579044    42App    4.623693
      63Ap     4.706772    64Ap     4.799257    43App    4.904999
      65Ap     4.916320    44App    4.966637    66Ap     4.971044
      45App    5.156494    67Ap     5.160808    68Ap     5.218685
      69Ap     5.245522    46App    5.290588    47App    5.391188
      70Ap     5.457900    71Ap     5.506725    48App    5.683634
      72Ap     5.692681    49App    5.828356    73Ap     5.848544
      74Ap     5.933578    75Ap     6.134580    50App    6.184302
      51App    6.275828    76Ap     6.451552    52App    6.575425
      77Ap    12.143570    78Ap    15.583717

    Final Occupation by Irrep:
             Ap   App
    DOCC [     6,    2 ]
    SOCC [     1,    0 ]

  @UHF Final Energy:   -78.59007996506061

   => Energetics <=

    Nuclear Repulsion Energy =             39.1217581025880889
    One-Electron Energy =                -182.0489238681545885
    Two-Electron Energy =                  64.3370858005058892
    Total Energy =                        -78.5900799650605961

  UHF NO Occupations:
  HONO-2 :    5 Ap 1.9973740
  HONO-1 :    6 Ap 1.9964020
  HONO-0 :    7 Ap 1.0000000
  LUNO+0 :    8 Ap 0.0035980
  LUNO+1 :    9 Ap 0.0026260
  LUNO+2 :    3App 0.0010476
  LUNO+3 :   10 Ap 0.0004781

Computation Completed

Properties will be evaluated at   0.000000,   0.000000,   0.000000 [a0]

Properties computed using the SCF density matrix

  Nuclear Dipole Moment: [e a0]
     X:     0.0000      Y:    -0.9297      Z:     0.0000

  Electronic Dipole Moment: [e a0]
     X:     0.0011      Y:     0.8425      Z:     0.0000

  Dipole Moment: [e a0]
     X:     0.0011      Y:    -0.0873      Z:     0.0000     Total:     0.0873

  Dipole Moment: [D]
     X:     0.0029      Y:    -0.2219      Z:     0.0000     Total:     0.2219

*** tstop() called on davis-ws at Fri Aug 23 15:43:06 2019
Module time:
	user time   =       4.06 seconds =       0.07 minutes
	system time =       0.17 seconds =       0.00 minutes
	total time  =          4 seconds =       0.07 minutes
Total time:
	user time   =       4.06 seconds =       0.07 minutes
	system time =       0.17 seconds =       0.00 minutes
	total time  =          4 seconds =       0.07 minutes
 MINTS: Wrapper to libmints.
   by Justin Turney

   Calculation information:
      Number of threads:                 1
      Number of atoms:                   7
      Number of AO shells:              50
      Number of SO shells:              38
      Number of primitives:             92
      Number of atomic orbitals:       145
      Number of basis functions:       130

      Number of irreps:                  2
      Integral cutoff                 0.00e+00
      Number of functions per irrep: [  78   52 ]

 OEINTS: Overlap, kinetic, potential, dipole, and quadrupole integrals
         stored in file 35.

      Computing two-electron integrals...done
      Computed 16194980 non-zero two-electron integrals.
        Stored in file 33.

*** tstart() called on davis-ws
*** at Fri Aug 23 15:43:07 2019

  Module OCC Options:
  ----------------------------------------------------------------------------
  ACTIVE                        => (empty)         !
  BASIS_RELATIVISTIC            => (empty)         !
  BENCH                         => (empty)         !
  CACHELEVEL                    => (empty)         !
  CCL_ENERGY                    => (empty)         !
  CC_DIIS_MAX_VECS              => (empty)         !
  CC_DIIS_MIN_VECS              => (empty)         !
  CC_MAXITER                    => (empty)         !
  CC_TYPE                       => (empty)         !
  CEPA_OS_SCALE                 => (empty)         !
  CEPA_SOS_SCALE                => (empty)         !
  CEPA_SS_SCALE                 => (empty)         !
  CEPA_TYPE                     => (empty)         !
  CI_TYPE                       => (empty)         !
  CUBEPROP_BASIS_FUNCTIONS      => (empty)         !
  CUBEPROP_FILEPATH             => (empty)         !
  CUBEPROP_ISOCONTOUR_THRESHOLD => (empty)         !
  CUBEPROP_ORBITALS             => (empty)         !
  CUBEPROP_TASKS                => (empty)         !
  CUBIC_BASIS_TOLERANCE         => (empty)         !
  CUBIC_BLOCK_MAX_POINTS        => (empty)         !
  CUBIC_GRID_OVERAGE            => (empty)         !
  CUBIC_GRID_SPACING            => (empty)         !
  CUTOFF                        => (empty)         !
  DEBUG                         => (empty)         !
  DERTYPE                       => (empty)         !
  DF_BASIS_CC                   => (empty)         !
  DIE_IF_NOT_CONVERGED          => (empty)         !
  DKH_ORDER                     => (empty)         !
  DOCC                          => (empty)         !
  DO_DIIS                       => (empty)         !
  DO_LEVEL_SHIFT                => (empty)         !
  DO_SCS                        => FALSE           !
  DO_SOS                        => FALSE           !
  E3_SCALE                      => (empty)         !
  EA_POLES                      => (empty)         !
  EKT_EA                        => (empty)         !
  EKT_IP                        => (empty)         !
  EP_EA_POLES                   => (empty)         !
  EP_IP_POLES                   => (empty)         !
  EP_MAXITER                    => (empty)         !
  EXTERNAL_POTENTIAL_SYMMETRY   => (empty)         !
  E_CONVERGENCE                 => 1e-06           !
  FREEZE_CORE                   => (empty)         !
  FROZEN_DOCC                   => (empty)         !
  FROZEN_UOCC                   => (empty)         !
  INTEGRAL_PACKAGE              => (empty)         !
  IP_POLES                      => (empty)         !
  LEVEL_SHIFT                   => (empty)         !
  LINEQ_SOLVER                  => (empty)         !
  LITERAL_CFOUR                 => (empty)         !
  MAT_NUM_COLUMN_PRINT          => (empty)         !
  MAX_MOGRAD_CONVERGENCE        => (empty)         !
  MOGRAD_DAMPING                => (empty)         !
  MOLDEN_WITH_VIRTUAL           => (empty)         !
  MO_DIIS_NUM_VECS              => (empty)         !
  MO_MAXITER                    => (empty)         !
  MO_READ                       => (empty)         !
  MO_STEP_MAX                   => (empty)         !
  MO_WRITE                      => (empty)         !
  MP2_OS_SCALE                  => (empty)         !
  MP2_SOS_SCALE                 => (empty)         !
  MP2_SOS_SCALE2                => (empty)         !
  MP2_SS_SCALE                  => (empty)         !
  MP2_TYPE                      => CONV            !
  MP_TYPE                       => (empty)         !
  NAT_ORBS                      => (empty)         !
  NUM_FROZEN_DOCC               => (empty)         !
  NUM_FROZEN_UOCC               => (empty)         !
  NUM_GPUS                      => (empty)         !
  OCC_ORBS_PRINT                => (empty)         !
  OEPROP                        => (empty)         !
  OPT_METHOD                    => (empty)         !
  ORB_OPT                       => FALSE           !
  ORB_RESP_SOLVER               => (empty)         !
  ORTH_TYPE                     => (empty)         !
  PCG_BETA_TYPE                 => (empty)         !
  PCG_CONVERGENCE               => (empty)         !
  PCG_MAXITER                   => (empty)         !
  PCM                           => (empty)         !
  PRINT                         => (empty)         !
  PRINT_NOONS                   => (empty)         !
  PROPERTIES                    => (empty)         !
  PROPERTIES_ORIGIN             => (empty)         !
  PUREAM                        => (empty)         !
  QC_MODULE                     => (empty)         !
  RAS1                          => (empty)         !
  RAS2                          => (empty)         !
  RAS3                          => (empty)         !
  RAS4                          => (empty)         !
  RELATIVISTIC                  => (empty)         !
  RELAXED                       => (empty)         !
  RESTRICTED_DOCC               => (empty)         !
  RESTRICTED_UOCC               => (empty)         !
  RMS_MOGRAD_CONVERGENCE        => (empty)         !
  R_CONVERGENCE                 => (empty)         !
  SCF_TYPE                      => PK              !
  SCS_TYPE                      => (empty)         !
  SOCC                          => (empty)         !
  SOS_TYPE                      => (empty)         !
  SYMMETRIZE                    => (empty)         !
  TPDM_ABCD_TYPE                => (empty)         !
  WFN                           => (empty)         !
  WFN_TYPE                      => OMP2            !
  WRITER_FILE_LABEL             => (empty)         !

 ==============================================================================
 ==============================================================================
 ==============================================================================

                       MP2
              Program Written by Ugur Bozkaya,
              Latest Revision June 25, 2014.

 ==============================================================================
 ==============================================================================
 ==============================================================================

	RMS orbital gradient is changed to :     1.00e-05
	MAX orbital gradient is changed to :     3.16e-04
	MO spaces per irreps...

	IRREP   FC   AOCC  BOCC  AVIR    BVIR  FV
	==========================================
	  A'     0     7     6    71     72     0
	  A"     0     2     2    50     50     0
	==========================================

	Computing MP2 energy using SCF MOs (Canonical MP2)...
	==============================================================================
	Nuclear Repulsion Energy (a.u.)    :    39.12175810258809
	SCF Energy (a.u.)                  :   -78.59007996506061
	REF Energy (a.u.)                  :   -78.59007996506061
	Alpha-Alpha Contribution (a.u.)    :    -0.04466084387347
	Alpha-Beta Contribution (a.u.)     :    -0.29136625344391
	Beta-Beta Contribution (a.u.)      :    -0.03134939233616
	Scaled_SS Correlation Energy (a.u.):    -0.02533674540321
	Scaled_OS Correlation Energy (a.u.):    -0.34963950413269
	SCS-MP2 Total Energy (a.u.)        :   -78.96505621459650
	SOS-MP2 Total Energy (a.u.)        :   -78.59007996506061
	SCSN-MP2 Total Energy (a.u.)       :   -78.72385798078956
	SCS-MP2-VDW Total Energy (a.u.)    :   -79.00103388757361
	SOS-PI-MP2 Total Energy (a.u.)     :   -78.99799271988208
	MP2 Correlation Energy (a.u.)      :    -0.36737648965353
	MP2 Total Energy (a.u.)            :   -78.95745645471415
	==============================================================================

*** tstop() called on davis-ws at Fri Aug 23 15:43:10 2019
Module time:
	user time   =       2.61 seconds =       0.04 minutes
	system time =       0.81 seconds =       0.01 minutes
	total time  =          3 seconds =       0.05 minutes
Total time:
	user time   =       7.83 seconds =       0.13 minutes
	system time =       1.11 seconds =       0.02 minutes
	total time  =          8 seconds =       0.13 minutes

    Psi4 stopped on: Friday, 23 August 2019 03:43PM
    Psi4 wall time for execution: 0:00:08.99

*** Psi4 exiting successfully. Buy a developer a beer!
