                               Psi4 1.2.1 release

  ==> Input File <==

--------------------------------------------------------------------------
memory 2 GB

molecule {
H
H 1 0.96
}

set basis sto-3g
set mp2_type conv
set scf_type pk

energy('mp2')
--------------------------------------------------------------------------

    Molecular point group: d2h

    Geometry (in Angstrom), charge = 0, multiplicity = 1:

       Center              X                  Y                   Z               Mass
    ------------   -----------------  -----------------  -----------------  -----------------
         H            0.000000000000     0.000000000000    -0.480000000000     1.007825032070
         H            0.000000000000     0.000000000000     0.480000000000     1.007825032070

  Charge       = 0
  Multiplicity = 1
  Basis Set: STO-3G
    Blend: STO-3G

    Orbital Energies [Eh]
    ---------------------

    Doubly Occupied:

       1Ag    -0.497339

  @RHF Final Energy:    -1.07701965343424

   => Energetics <=

    Nuclear Repulsion Energy =              0.5512262589479169
    One-Electron Energy =                  -2.2618131148101850
    Two-Electron Energy =                   0.6335672024280324
    Total Energy =                         -1.0770196534342356

  Dipole Moment: [D]
     X:     0.0000      Y:     0.0000      Z:     0.0000     Total:     0.0000

*** Psi4 exiting successfully. Buy a developer a beer!
