                               Psi4 1.3.2 release

  ==> Input File <==

--------------------------------------------------------------------------

# PYTHONPATH must include directory above plugin directory.
#     Define either externally or here, then import plugin.
sys.path.insert(0, './..')
import ddcc

molecule {
O
H 1 R
H 1 R 2 A

R = 1.1
A = 104.0
symmetry c1
}

set {
  basis dz
}

set ddcc {
  print 1
}
set scf_type pk
set mp2_type conv
set E_CONVERGENCE 14
set D_CONVERGENCE 14

e = energy('ddcc')
er = energy('scf')
e1 = energy('mp2')
print("MP2 Energy (Psi4) ",e1 - er)
e2 = energy('ccsd')
print("CCSD Energy (Psi4) ",e2 - er)
--------------------------------------------------------------------------

    Molecular point group: c1
  Charge       = 0
  Multiplicity = 1
  Basis Set: DZ
    Blend: DZ
  @RHF Final Energy:   -75.97787894587891
    Total Energy =                        -75.9778789458788992
    Molecular point group: c1
  Basis Set: DZ
    Blend: DZ
  @RHF Final Energy:   -75.97787894587891
    Total Energy =                        -75.9778789458788992
  Multiplicity = 1
  Basis Set: DZ
    Blend: DZ
  @RHF Final Energy:   -75.97787894587891
    Total Energy =                        -75.9778789458788992
    Molecular point group: c1

    Geometry (in Angstrom), charge = 0, multiplicity = 1:

       Center              X                  Y                   Z               Mass
    ------------   -----------------  -----------------  -----------------  -----------------
         O            0.000000000000     0.000000000000    -0.075791843599    15.994914619570
         H            0.000000000000    -0.866811828967     0.601435779259     1.007825032230
         H            0.000000000000     0.866811828967     0.601435779259     1.007825032230

  Charge       = 0
  Multiplicity = 1
  Basis Set: DZ
    Blend: DZ

    Orbital Energies [Eh]
    ---------------------

    Doubly Occupied:

       1A    -20.584168     2A     -1.298253     3A     -0.643919
       4A     -0.545852     5A     -0.500215

  @RHF Final Energy:   -75.97787894587890

   => Energetics <=

    Nuclear Repulsion Energy =              8.0023664821734215
    One-Electron Energy =                -120.8156775329090920
    Two-Electron Energy =                  36.8354321048567641
    Total Energy =                        -75.9778789458789134

  Dipole Moment: [D]
     X:     0.0000      Y:     0.0000      Z:     2.7222     Total:     2.7222

      * MP2 total energy                      =  -76.130588833218852
      * CCSD total energy                     =  -76.137734572656086
*** Psi4 exiting successfully. Buy a developer a beer!
