                               Psi4 1.3.2 release

  ==> Input File <==

--------------------------------------------------------------------------

# PYTHONPATH must include directory above plugin directory.
#     Define either externally or here, then import plugin.
sys.path.insert(0, './..')
import ddcc

molecule {
O
H 1 R
H 1 R 2 A

R = 1.1
A = 104.0
symmetry c1
}

set {
  basis cc-pvdz
}

set ddcc {
  print 1
}
set scf_type pk
set mp2_type conv
set E_CONVERGENCE 12
set D_CONVERGENCE 12

e = energy('ddcc')
er = energy('scf')
e1 = energy('mp2')
print("MP2 Energy (Psi4) ",e1 - er)
e2 = energy('ccsd')
print("CCSD Energy (Psi4) ",e2 - er)
--------------------------------------------------------------------------

    Molecular point group: c1
  Charge       = 0
  Multiplicity = 1
  Basis Set: CC-PVDZ
    Blend: CC-PVDZ
  @RHF Final Energy:   -75.98979578728866
    Total Energy =                        -75.9897957872886565
    Molecular point group: c1
  Basis Set: CC-PVDZ
    Blend: CC-PVDZ
  @RHF Final Energy:   -75.98979578728870
    Total Energy =                        -75.9897957872887133
  Multiplicity = 1
  Basis Set: CC-PVDZ
    Blend: CC-PVDZ
  @RHF Final Energy:   -75.98979578728866
    Total Energy =                        -75.9897957872886565
    Molecular point group: c1

    Geometry (in Angstrom), charge = 0, multiplicity = 1:

       Center              X                  Y                   Z               Mass
    ------------   -----------------  -----------------  -----------------  -----------------
         O            0.000000000000     0.000000000000    -0.075791843599    15.994914619570
         H            0.000000000000    -0.866811828967     0.601435779259     1.007825032230
         H            0.000000000000     0.866811828967     0.601435779259     1.007825032230

  Charge       = 0
  Multiplicity = 1
  Basis Set: CC-PVDZ
    Blend: CC-PVDZ

    Orbital Energies [Eh]
    ---------------------

    Doubly Occupied:

       1A    -20.574752     2A     -1.277566     3A     -0.629911
       4A     -0.541684     5A     -0.486545

  @RHF Final Energy:   -75.98979578728866

   => Energetics <=

    Nuclear Repulsion Energy =              8.0023664821734215
    One-Electron Energy =                -120.9634075636191000
    Two-Electron Energy =                  36.9712452941570149
    Total Energy =                        -75.9897957872886565

  Dipole Moment: [D]
     X:     0.0000      Y:     0.0000      Z:     2.1766     Total:     2.1766

      * MP2 total energy                      =  -76.204143394766305
      * CCSD total energy                     =  -76.213705805990301
*** Psi4 exiting successfully. Buy a developer a beer!
