                               Psi4 1.4a2.dev138

  ==> Input File <==

--------------------------------------------------------------------------

# PYTHONPATH must include directory above plugin directory.
#     Define either externally or here, then import plugin.
sys.path.insert(0, './..')
import ddcc

molecule {
O
H 1 R
H 1 R 2 A

R = 1.1
A = 104.0
symmetry c1
}

set {
  basis sto-3g
}

set ddcc {
  print 1
}
set scf_type pk
set mp2_type conv
set E_CONVERGENCE 14
set D_CONVERGENCE 14

e = energy('ddcc')
er = energy('scf')
e1 = energy('mp2')
print("MP2 Energy (Psi4) ",e1 - er)
e2 = energy('ccsd')
e3 = energy('ccsd(t)')
print("CCSD Energy (Psi4) ",e2 - er)
print("(T) Energy (Psi4) ",e3 - e2)
--------------------------------------------------------------------------

    Molecular point group: c1
  Charge       = 0
  Multiplicity = 1
  Basis Set: STO-3G
    Blend: STO-3G
  @RHF Final Energy:   -74.94207989868093
    Total Energy =                        -74.9420798986809302
    Molecular point group: c1
  Basis Set: STO-3G
    Blend: STO-3G
  @RHF Final Energy:   -74.94207989868094
    Total Energy =                        -74.9420798986809444
  Basis Set: STO-3G
    Blend: STO-3G
  @RHF Final Energy:   -74.94207989868093
    Total Energy =                        -74.9420798986809302
  Multiplicity = 1
  Basis Set: STO-3G
    Blend: STO-3G
  @RHF Final Energy:   -74.94207989868090
    Total Energy =                        -74.9420798986809018
      * MP2 total energy                      =  -74.991229543484721
      * CCSD total energy                     =  -75.012760000759442
    Molecular point group: c1

    Geometry (in Angstrom), charge = 0, multiplicity = 1:

       Center              X                  Y                   Z               Mass
    ------------   -----------------  -----------------  -----------------  -----------------
         O            0.000000000000     0.000000000000    -0.075791843599    15.994914619570
         H            0.000000000000    -0.866811828967     0.601435779259     1.007825032230
         H            0.000000000000     0.866811828967     0.601435779259     1.007825032230

  Charge       = 0
  Multiplicity = 1
  Basis Set: STO-3G
    Blend: STO-3G

    Orbital Energies [Eh]
    ---------------------

    Doubly Occupied:

       1A    -20.262892     2A     -1.209697     3A     -0.547965
       4A     -0.436527     5A     -0.387587

  @RHF Final Energy:   -74.94207989868093

   => Energetics <=

    Nuclear Repulsion Energy =              8.0023664821734215
    One-Electron Energy =                -120.1995577635353527
    Two-Electron Energy =                  37.2551113826810010
    Total Energy =                        -74.9420798986809302

  Dipole Moment: [D]
     X:     0.0000      Y:    -0.0000      Z:     1.5340     Total:     1.5340

      * MP2 total energy                      =  -74.991229543484692
      * CCSD total energy                     =  -75.012760000759414
      * CCSD(T) total energy                  =  -75.012859878055451
*** Psi4 exiting successfully. Buy a developer a beer!
