                               Psi4 1.4a2.dev138

  ==> Input File <==

--------------------------------------------------------------------------

# PYTHONPATH must include directory above plugin directory.
#     Define either externally or here, then import plugin.
memory 8 GB
sys.path.insert(0, './..')
import ddcc

#molecule {
#pubchem:formaldehyde
#symmetry c1
#}
molecule {
O
H 1 R
H 1 R 2 A

R = 1.1
A = 104.0
symmetry c1
}

set {
  basis 3-21G
}

set ddcc {
  print 1
}
set do_triples true
set pertd true
set scf_type pk
set mp2_type conv
set E_CONVERGENCE 10
set D_CONVERGENCE 10

e = energy('myccsd')
#er = energy('scf')
#e1 = energy('mp2')
#print("MP2 Energy (Psi4) ",e1 - er)
#e2 = energy('ccsd')
#e3 = energy('ccsd(t)')
#print("CCSD Energy (Psi4) ",e2 - er)
#print("(T) Energy (Psi4) ",e3 - e2)
--------------------------------------------------------------------------

    Molecular point group: c1

    Geometry (in Angstrom), charge = 0, multiplicity = 1:

       Center              X                  Y                   Z               Mass
    ------------   -----------------  -----------------  -----------------  -----------------
         O            0.000000000000     0.000000000000    -0.075791843599    15.994914619570
         H            0.000000000000    -0.866811828967     0.601435779259     1.007825032230
         H            0.000000000000     0.866811828967     0.601435779259     1.007825032230

  Charge       = 0
  Multiplicity = 1
  Basis Set: 3-21G
    Blend: 3-21G

    Orbital Energies [Eh]
    ---------------------

    Doubly Occupied:

       1A    -20.458044     2A     -1.270837     3A     -0.616359
       4A     -0.519138     5A     -0.476907

  @RHF Final Energy:   -75.56131256938585

   => Energetics <=

    Nuclear Repulsion Energy =              8.0023664821734215
    One-Electron Energy =                -120.4447878709506767
    Two-Electron Energy =                  36.8811088193914145
    Total Energy =                        -75.5613125693858478

  Dipole Moment: [D]
     X:     0.0000      Y:    -0.0000      Z:     2.4139     Total:     2.4139

*** Psi4 exiting successfully. Buy a developer a beer!
