                               Psi4 1.3.2 release

  ==> Input File <==

--------------------------------------------------------------------------

# PYTHONPATH must include directory above plugin directory.
#     Define either externally or here, then import plugin.
sys.path.insert(0, './..')
import moint

molecule {
O
H 1 R
H 1 R 2 A

R = .9
A = 104.5
symmetry c1
}

set {
  basis sto-3g
}

set moint {
  print 1
}

energy('moint')

moint.exampleFN()
--------------------------------------------------------------------------

    Molecular point group: c1

    Geometry (in Angstrom), charge = 0, multiplicity = 1:

       Center              X                  Y                   Z               Mass
    ------------   -----------------  -----------------  -----------------  -----------------
         O            0.000000000000     0.000000000000    -0.061664597388    15.994914619570
         H            0.000000000000    -0.711620616369     0.489330954643     1.007825032230
         H            0.000000000000     0.711620616369     0.489330954643     1.007825032230

  Charge       = 0
  Multiplicity = 1
  Basis Set: STO-3G
    Blend: STO-3G

    Orbital Energies [Eh]
    ---------------------

    Doubly Occupied:

       1A    -20.236192     2A     -1.300480     3A     -0.649309
       4A     -0.460194     5A     -0.396298

  @RHF Final Energy:   -74.94502100876628

   => Energetics <=

    Nuclear Repulsion Energy =              9.7794061828526395
    One-Electron Energy =                -123.3639077899159133
    Two-Electron Energy =                  38.6394805982969842
    Total Energy =                        -74.9450210087662896

  Dipole Moment: [D]
     X:     0.0000      Y:     0.0000      Z:     1.7986     Total:     1.7986

*** Psi4 exiting successfully. Buy a developer a beer!
