                               Psi4 1.2.1 release

  ==> Input File <==

--------------------------------------------------------------------------
memory 2 GB

molecule {
0 1
O
H 1 1.1
H 1 1.1 2 104.0
}

set basis sto-3g
set scf_type pk
set guess core
energy('scf')
--------------------------------------------------------------------------

    Molecular point group: c2v

    Geometry (in Angstrom), charge = 0, multiplicity = 1:

       Center              X                  Y                   Z               Mass
    ------------   -----------------  -----------------  -----------------  -----------------
         O            0.000000000000     0.000000000000    -0.075791843589    15.994914619560
         H            0.000000000000    -0.866811828967     0.601435779270     1.007825032070
         H            0.000000000000     0.866811828967     0.601435779270     1.007825032070

  Charge       = 0
  Multiplicity = 1
  Basis Set: STO-3G
    Blend: STO-3G

    Orbital Energies [Eh]
    ---------------------

    Doubly Occupied:

       1A1   -20.262891     2A1    -1.209697     1B2    -0.547965
       3A1    -0.436527     1B1    -0.387587

  @RHF Final Energy:   -74.94207989707432

   => Energetics <=

    Nuclear Repulsion Energy =              8.0023664507190784
    One-Electron Energy =                -120.1995477854200232
    Two-Electron Energy =                  37.2551014376266210
    Total Energy =                        -74.9420798970743220

  Dipole Moment: [D]
     X:     0.0000      Y:     0.0000      Z:     1.5340     Total:     1.5340

*** Psi4 exiting successfully. Buy a developer a beer!
