                               Psi4 1.3.2 release

  ==> Input File <==

--------------------------------------------------------------------------
memory 4 GB

molecule {
O
H 1 1.1
H 1 1.1 2 104.0
symmetry c1
}

set basis cc-pvtz
energy('ccsd')
--------------------------------------------------------------------------

    Molecular point group: c1

    Geometry (in Angstrom), charge = 0, multiplicity = 1:

       Center              X                  Y                   Z               Mass
    ------------   -----------------  -----------------  -----------------  -----------------
         O            0.000000000000     0.000000000000    -0.075791843599    15.994914619570
         H            0.000000000000    -0.866811828967     0.601435779259     1.007825032230
         H            0.000000000000     0.866811828967     0.601435779259     1.007825032230

  Charge       = 0
  Multiplicity = 1
  Basis Set: CC-PVTZ
    Blend: CC-PVTZ

    Orbital Energies [Eh]
    ---------------------

    Doubly Occupied:

       1A    -20.578257     2A     -1.284835     3A     -0.638602
       4A     -0.551674     5A     -0.496005

  @RHF Final Energy:   -76.01792181754116

   => Energetics <=

    Nuclear Repulsion Energy =              8.0023664821734215
    One-Electron Energy =                -120.9418307603716300
    Two-Electron Energy =                  36.9215424606570508
    Total Energy =                        -76.0179218175411648

  Dipole Moment: [D]
     X:     0.0000      Y:     0.0000      Z:     2.1341     Total:     2.1341

      * MP2 total energy                      =  -76.303170203345005
      * CCSD total energy                     =  -76.308026940814941
*** Psi4 exiting successfully. Buy a developer a beer!
