                               Psi4 1.4a2.dev138

  ==> Input File <==

--------------------------------------------------------------------------

# PYTHONPATH must include directory above plugin directory.
#     Define either externally or here, then import plugin.
memory 16 GB
sys.path.insert(0, './..')
import xtensor

#molecule {
#pubchem:formaldehyde
#symmetry c1
#}
molecule {
O
H 1 R
H 1 R 2 A

R = 1.1
A = 104.0
symmetry c1
}

set {
  basis sto-3g
}

set ddcc {
  print 1
}
set reference uhf
set scf_type pk
set mp2_type conv
set E_CONVERGENCE 10
set D_CONVERGENCE 10

e = energy('myccsd')
#er = energy('scf')
#e1 = energy('mp2')
#print("MP2 Energy (Psi4) ",e1 - er)
#e2 = energy('ccsd')
#e3 = energy('ccsd(t)')
#print("CCSD Energy (Psi4) ",e2 - er)
#print("(T) Energy (Psi4) ",e3 - e2)
--------------------------------------------------------------------------

    Molecular point group: c1

    Geometry (in Angstrom), charge = 0, multiplicity = 1:

       Center              X                  Y                   Z               Mass
    ------------   -----------------  -----------------  -----------------  -----------------
         O            0.000000000000     0.000000000000    -0.075791843599    15.994914619570
         H            0.000000000000    -0.866811828967     0.601435779259     1.007825032230
         H            0.000000000000     0.866811828967     0.601435779259     1.007825032230

  Charge       = 0
  Multiplicity = 1
  Basis Set: STO-3G
    Blend: STO-3G

    Orbital Energies [Eh]
    ---------------------

    Alpha Occupied:

       1A    -20.262892     2A     -1.209697     3A     -0.547965
       4A     -0.436527     5A     -0.387587

    Alpha Virtual:

       6A      0.477619     7A      0.588139

    Beta Occupied:

       1A    -20.262892     2A     -1.209697     3A     -0.547965
       4A     -0.436527     5A     -0.387587

    Beta Virtual:

       6A      0.477619     7A      0.588139

    Final Occupation by Irrep:
              A
    DOCC [     5 ]
    SOCC [     0 ]

  @UHF Final Energy:   -74.94207989868097

   => Energetics <=

    Nuclear Repulsion Energy =              8.0023664821734215
    One-Electron Energy =                -120.1995577633490626
    Two-Electron Energy =                  37.2551113824946682
    Total Energy =                        -74.9420798986809586

  UHF NO Occupations:
  HONO-2 :    3  A 2.0000000
  HONO-1 :    4  A 2.0000000
  HONO-0 :    5  A 2.0000000
  LUNO+0 :    6  A 0.0000000
  LUNO+1 :    7  A -0.0000000

Computation Completed

Properties will be evaluated at   0.000000,   0.000000,   0.000000 [a0]

Properties computed using the SCF density matrix

  Nuclear Dipole Moment: [e a0]
     X:     0.0000      Y:     0.0000      Z:     1.1273

  Electronic Dipole Moment: [e a0]
     X:     0.0000      Y:     0.0000      Z:    -0.5238

  Dipole Moment: [e a0]
     X:     0.0000      Y:     0.0000      Z:     0.6035     Total:     0.6035

  Dipole Moment: [D]
     X:     0.0000      Y:     0.0000      Z:     1.5340     Total:     1.5340

*** tstop() called on ws-b14-mmd at Mon Nov 25 21:37:41 2019
Module time:
	user time   =       0.41 seconds =       0.01 minutes
	system time =       0.01 seconds =       0.00 minutes
	total time  =          0 seconds =       0.00 minutes
Total time:
	user time   =       0.41 seconds =       0.01 minutes
	system time =       0.01 seconds =       0.00 minutes
	total time  =          0 seconds =       0.00 minutes
 MINTS: Wrapper to libmints.
   by Justin Turney

   Calculation information:
      Number of threads:                 1
      Number of atoms:                   3
      Number of AO shells:               5
      Number of SO shells:               5
      Number of primitives:             15
      Number of atomic orbitals:         7
      Number of basis functions:         7

      Number of irreps:                  1
      Integral cutoff                 0.00e+00
      Number of functions per irrep: [   7 ]

 OEINTS: Overlap, kinetic, potential, dipole, and quadrupole integrals
         stored in file 35.

      Computing two-electron integrals...done
      Computed 231 non-zero two-electron integrals.
        Stored in file 33.

Reading options from the CCSD block
Calling plugin ccsd.so.

    Psi4 stopped on: Monday, 25 November 2019 09:37PM
    Psi4 wall time for execution: 0:00:00.53

*** Psi4 exiting successfully. Buy a developer a beer!
